# vtk DataFile Version 2.0
VTK from Matlab
ASCII
DATASET UNSTRUCTURED_GRID
POINTS 42 float
0.00015979 0.00007029 0.00285696 0.00042567 0.00007029 0.00756822 0.00077760 0.00007029 0.00380256 0.00083167 0.00007029 0.00530532 0.00069574 0.00007029 0.00162101 0.00028808 0.00007029 0.00311060 0.00032624 0.00007029 0.00653752 0.00049028 0.00007029 0.00825404 0.00063900 0.00007029 0.00995637 0.00067072 0.00007029 0.00961417 0.00034837 0.00007029 0.00399583 0.00026734 0.00007029 0.00910192 0.00015669 0.00007029 0.00579415 0.00052165 0.00008855 0.00868559 0.00046721 0.00008855 0.00543761 0.00067343 0.00009141 0.00076976 0.00064752 0.00008855 0.00008264 0.00074033 0.00008855 0.00436828 0.00019648 0.00010137 0.00154250 0.00070960 0.00011429 0.00923565 0.00041971 0.00008855 0.00459736 0.00033735 0.00008855 0.00095189 0.00039762 0.00008855 0.00189127 0.00107718 0.00011284 0.00688870 0.00107718 0.00011284 0.00084394 0.00107718 0.00011284 0.00473052 -0.00007718 0.00011284 0.00053923 0.00109725 0.00014216 0.00766065 -0.00011007 0.00016091 0.00346115 -0.00009389 0.00013726 0.00538927 0.00110879 0.00015904 0.00137734 0.00114835 0.00021687 0.00252049 0.00109389 0.00013726 0.00835904 -0.00013198 0.00019295 0.00798913 -0.00007718 0.00011284 0.00747778 0.00113110 0.00019165 0.00587182 0.00079899 0.00000000 0.00840297 0.00074485 0.00000000 0.00129841 0.00073098 0.00000000 0.00568539 0.00018763 0.00000000 0.00336954 0.00017948 0.00000000 0.00774523 0.00016683 0.00000000 0.00549585 
POINT_DATA 42
SCALARS radius float
LOOKUP_TABLE default
0.00014057 0.00014057 0.00014057 0.00014057 0.00014057 0.00014057 0.00014057 0.00014057 0.00014057 0.00014057 0.00014057 0.00014057 0.00014057 0.00017711 0.00017711 0.00018283 0.00017711 0.00017711 0.00020274 0.00022859 0.00017711 0.00017711 0.00017711 0.00022567 0.00022567 0.00022567 0.00022567 0.00028433 0.00032182 0.00027452 0.00031807 0.00043374 0.00027452 0.00038589 0.00022567 0.00038330 0.00002500 0.00002500 0.00002500 0.00002500 0.00002500 0.00002500 
SCALARS Pressure float
LOOKUP_TABLE default
8.36617785 8.36617785 8.36617785 8.36617785 8.36617785 8.36617785 8.36617785 8.36617785 8.36617785 8.36617785 8.36617785 8.36617785 8.36617785 13.26504569 13.16246730 14.07173728 13.16246730 13.16246730 17.63825150 23.57248327 13.16246730 13.16246730 13.16246730 6.73372792 6.73372792 6.73372792 6.73372792 10.32053286 13.26790251 9.63918813 12.94751533 26.32142677 9.63918813 19.81643677 6.73372792 19.50818162 0.00000000 0.00000000 0.00000000 0.00000000 0.00000000 0.00000000 
SCALARS velocity float
LOOKUP_TABLE default
0.00000000 0.00000000 0.00000000 0.00000000 0.00000000 0.00000000 0.00000000 0.00000000 0.00000000 0.00000000 0.00000000 0.00000000 0.00000000 0.00000000 0.00000000 0.00000000 0.00000000 0.00000000 0.00000000 0.00000000 0.00000000 0.00000000 0.00000000 0.00000000 0.00000000 0.00000000 0.00000000 0.00000000 0.00000000 0.00000000 0.00000000 0.00000000 0.00000000 0.00000000 0.00000000 0.00000000 0.00000000 0.00000000 0.00000000 0.00000000 0.00000000 0.00000000 
SCALARS regime float
LOOKUP_TABLE default
2.00000000 2.00000000 2.00000000 2.00000000 2.00000000 2.00000000 2.00000000 2.00000000 2.00000000 2.00000000 2.00000000 2.00000000 2.00000000 2.00000000 2.00000000 2.00000000 2.00000000 2.00000000 2.00000000 2.00000000 2.00000000 2.00000000 2.00000000 3.00000000 3.00000000 3.00000000 3.00000000 3.00000000 3.00000000 3.00000000 3.00000000 3.00000000 3.00000000 3.00000000 3.00000000 3.00000000 0.00000000 0.00000000 0.00000000 0.00000000 0.00000000 0.00000000 
SCALARS Temperature float
LOOKUP_TABLE default
343.00000000 343.00000000 343.00000000 343.00000000 343.00000000 343.00000000 343.00000000 343.00000000 343.00000000 343.00000000 343.00000000 343.00000000 343.00000000 343.00000000 343.00000000 343.00000000 343.00000000 343.00000000 343.00000000 343.00000000 343.00000000 343.00000000 343.00000000 343.00000000 343.00000000 343.00000000 343.00000000 343.00000000 343.00000000 343.00000000 343.00000000 343.00000000 343.00000000 343.00000000 343.00000000 343.00000000 343.00000000 343.00000000 343.00000000 343.00000000 343.00000000 343.00000000 