# vtk DataFile Version 2.0
VTK from Matlab
ASCII
DATASET UNSTRUCTURED_GRID
POINTS 56 float
0.00079899 0.00004110 0.00840297 0.00028957 0.00004110 0.00196497 0.00093463 0.00004110 0.00615737 0.00093431 0.00004110 0.00584972 0.00015979 0.00004110 0.00285696 0.00042567 0.00004110 0.00756822 0.00089495 0.00004110 0.00753352 0.00077760 0.00004110 0.00380256 0.00093652 0.00004110 0.00567538 0.00083167 0.00004110 0.00530532 0.00091229 0.00004110 0.00778778 0.00074485 0.00004110 0.00129841 0.00073098 0.00004110 0.00568539 0.00039762 0.00004110 0.00469156 0.00018763 0.00004110 0.00336954 0.00069574 0.00004110 0.00162101 0.00028808 0.00004110 0.00311060 0.00006886 0.00004110 0.00528269 0.00011728 0.00004110 0.00165566 0.00080728 0.00004110 0.00601681 0.00032624 0.00004110 0.00653752 0.00092771 0.00004110 0.00688870 0.00044181 0.00004110 0.00450316 0.00038748 0.00004110 0.00083779 0.00075224 0.00004110 0.00228863 0.00049028 0.00004110 0.00825404 0.00063900 0.00004110 0.00995637 0.00028722 0.00004110 0.00106599 0.00067072 0.00004110 0.00961417 0.00017948 0.00004110 0.00774523 0.00093676 0.00004110 0.00084394 0.00034837 0.00004110 0.00399583 0.00023762 0.00004110 0.00799669 0.00026734 0.00004110 0.00910192 0.00050566 0.00004110 0.00181756 0.00015669 0.00004110 0.00579415 0.00016683 0.00004110 0.00549585 0.00078285 0.00005179 0.00914808 0.00014184 0.00005179 0.00815386 0.00052165 0.00005179 0.00868559 0.00088910 0.00005179 0.00248779 0.00014620 0.00005928 0.00350646 0.00064777 0.00005928 0.00931172 0.00046721 0.00005179 0.00543761 0.00067343 0.00005928 0.00076976 0.00064752 0.00005179 0.00008264 0.00056277 0.00005179 0.00255349 0.00074033 0.00005179 0.00436828 0.00090384 0.00005179 0.00140733 0.00023608 0.00005179 0.00148592 0.00068711 0.00005179 0.00263255 0.00104514 0.00006599 0.00473052 0.00104514 0.00006599 0.00830413 -0.00004514 0.00006599 0.00053923 -0.00004514 0.00006599 0.00793888 -0.00004514 0.00006599 0.00747778 
POINT_DATA 56
SCALARS radius float
LOOKUP_TABLE default
0.00008221 0.00008221 0.00008221 0.00008221 0.00008221 0.00008221 0.00008221 0.00008221 0.00008221 0.00008221 0.00008221 0.00008221 0.00008221 0.00008221 0.00008221 0.00008221 0.00008221 0.00008221 0.00008221 0.00008221 0.00008221 0.00008221 0.00008221 0.00008221 0.00008221 0.00008221 0.00008221 0.00008221 0.00008221 0.00008221 0.00008221 0.00008221 0.00008221 0.00008221 0.00008221 0.00008221 0.00008221 0.00010357 0.00010357 0.00010357 0.00010357 0.00011856 0.00011856 0.00010357 0.00011856 0.00010357 0.00010357 0.00010357 0.00010357 0.00010357 0.00010357 0.00013197 0.00013197 0.00013197 0.00013197 0.00013197 
SCALARS Pressure float
LOOKUP_TABLE default
3.57440590 3.57440590 3.57440590 3.57440590 3.57440590 3.57440590 3.57440590 3.57440590 3.57440590 3.57440590 3.57440590 3.57440590 3.57440590 3.57440590 3.57440590 3.57440590 3.57440590 3.57440590 3.57440590 3.57440590 3.57440590 3.57440590 3.57440590 3.57440590 3.57440590 3.57440590 3.57440590 3.57440590 3.57440590 3.57440590 3.57440590 3.57440590 3.57440590 3.57440590 3.57440590 3.57440590 3.57440590 5.00940469 5.00940469 5.00940469 4.98088095 6.19687713 6.19687713 4.98088095 6.19687713 4.98088095 4.98088095 4.98088095 4.98088095 4.98088095 1.43828378 3.05590001 3.05590001 3.05590001 3.05590001 3.05590001 
SCALARS velocity float
LOOKUP_TABLE default
0.00000000 0.00000000 0.00000000 0.00000000 0.00000000 0.00000000 0.00000000 0.00000000 0.00000000 0.00000000 0.00000000 0.00000000 0.00000000 0.00000000 0.00000000 0.00000000 0.00000000 0.00000000 0.00000000 0.00000000 0.00000000 0.00000000 0.00000000 0.00000000 0.00000000 0.00000000 0.00000000 0.00000000 0.00000000 0.00000000 0.00000000 0.00000000 0.00000000 0.00000000 0.00000000 0.00000000 0.00000000 0.00000000 0.00000000 0.00000000 0.00000000 0.00000000 0.00000000 0.00000000 0.00000000 0.00000000 0.00000000 0.00000000 0.00000000 0.00000000 0.00000000 0.00000000 0.00000000 0.00000000 0.00000000 0.00000000 
SCALARS regime float
LOOKUP_TABLE default
2.00000000 2.00000000 2.00000000 2.00000000 2.00000000 2.00000000 2.00000000 2.00000000 2.00000000 2.00000000 2.00000000 2.00000000 2.00000000 2.00000000 2.00000000 2.00000000 2.00000000 2.00000000 2.00000000 2.00000000 2.00000000 2.00000000 2.00000000 2.00000000 2.00000000 2.00000000 2.00000000 2.00000000 2.00000000 2.00000000 2.00000000 2.00000000 2.00000000 2.00000000 2.00000000 2.00000000 2.00000000 2.00000000 2.00000000 2.00000000 2.00000000 2.00000000 2.00000000 2.00000000 2.00000000 2.00000000 2.00000000 2.00000000 2.00000000 2.00000000 2.00000000 3.00000000 3.00000000 3.00000000 3.00000000 3.00000000 
SCALARS Temperature float
LOOKUP_TABLE default
343.00000000 343.00000000 343.00000000 343.00000000 343.00000000 343.00000000 343.00000000 343.00000000 343.00000000 343.00000000 343.00000000 343.00000000 343.00000000 343.00000000 343.00000000 343.00000000 343.00000000 343.00000000 343.00000000 343.00000000 343.00000000 343.00000000 343.00000000 343.00000000 343.00000000 343.00000000 343.00000000 343.00000000 343.00000000 343.00000000 343.00000000 343.00000000 343.00000000 343.00000000 343.00000000 343.00000000 343.00000000 343.00000000 343.00000000 343.00000000 343.00000000 343.00000000 343.00000000 343.00000000 343.00000000 343.00000000 343.00000000 343.00000000 343.00000000 343.00000000 343.00000000 343.00000000 343.00000000 343.00000000 343.00000000 343.00000000 