# vtk DataFile Version 2.0
VTK from Matlab
ASCII
DATASET UNSTRUCTURED_GRID
POINTS 51 float
0.00087136 0.00005648 0.00145466 0.00023762 0.00005648 0.00799669 0.00079899 0.00005179 0.00840297 0.00028957 0.00005179 0.00196497 0.00015979 0.00005179 0.00285696 0.00042567 0.00005179 0.00756822 0.00089495 0.00005179 0.00753352 0.00077760 0.00005179 0.00380256 0.00083167 0.00005179 0.00530532 0.00074485 0.00005179 0.00129841 0.00073098 0.00005179 0.00568539 0.00039762 0.00005179 0.00469156 0.00069574 0.00005179 0.00162101 0.00028808 0.00005179 0.00311060 0.00080728 0.00005179 0.00601681 0.00032624 0.00005179 0.00653752 0.00044181 0.00005179 0.00450316 0.00038748 0.00005179 0.00083779 0.00075224 0.00005179 0.00228863 0.00049028 0.00005179 0.00825404 0.00063900 0.00005179 0.00995637 0.00028722 0.00005179 0.00106599 0.00067072 0.00005179 0.00961417 0.00017948 0.00005179 0.00774523 0.00034837 0.00005179 0.00399583 0.00026734 0.00005179 0.00910192 0.00050566 0.00005179 0.00181756 0.00015669 0.00005179 0.00579415 0.00016683 0.00005179 0.00549585 0.00052165 0.00006525 0.00868559 0.00046721 0.00006525 0.00543761 0.00067343 0.00007029 0.00076976 0.00064752 0.00006525 0.00008264 0.00074033 0.00006525 0.00436828 0.00015750 0.00007863 0.00346912 0.00019648 0.00007469 0.00154250 0.00062499 0.00008550 0.00259126 0.00070960 0.00008705 0.00923565 0.00105687 0.00008314 0.00778778 0.00107165 0.00010475 0.00248779 0.00105687 0.00008314 0.00615737 -0.00005687 0.00008314 0.00528269 0.00105687 0.00008314 0.00688870 0.00105687 0.00008314 0.00084394 0.00106853 0.00010019 0.00140733 0.00105687 0.00008314 0.00473052 0.00105687 0.00008314 0.00830413 -0.00005687 0.00008314 0.00053923 -0.00005687 0.00008314 0.00747778 0.00107165 0.00010475 0.00576255 -0.00009028 0.00013197 0.00806082 
POINT_DATA 51
SCALARS radius float
LOOKUP_TABLE default
0.00006177 0.00006177 0.00010357 0.00010357 0.00010357 0.00010357 0.00010357 0.00010357 0.00010357 0.00010357 0.00010357 0.00010357 0.00010357 0.00010357 0.00010357 0.00010357 0.00010357 0.00010357 0.00010357 0.00010357 0.00010357 0.00010357 0.00010357 0.00010357 0.00010357 0.00010357 0.00010357 0.00010357 0.00010357 0.00013050 0.00013050 0.00014057 0.00013050 0.00013050 0.00015726 0.00014938 0.00017100 0.00017411 0.00016628 0.00020949 0.00016628 0.00016628 0.00016628 0.00016628 0.00020037 0.00016628 0.00016628 0.00016628 0.00016628 0.00020949 0.00026395 
SCALARS Pressure float
LOOKUP_TABLE default
2.59617782 2.59617782 4.98088095 4.98088095 4.98088095 4.98088095 4.98088095 4.98088095 4.98088095 4.98088095 4.98088095 4.98088095 4.98088095 4.98088095 4.98088095 4.98088095 4.98088095 4.98088095 4.98088095 4.98088095 4.98088095 4.98088095 4.98088095 4.98088095 4.98088095 4.98088095 4.98088095 4.98088095 4.98088095 7.36122200 7.31305794 8.36617785 7.31305794 7.31305794 10.35325729 9.37564828 12.24186983 12.80181583 4.14535592 5.93365167 4.14535592 4.14535592 4.14535592 4.14535592 5.51510789 4.14535592 4.14535592 4.14535592 4.14535592 5.93365167 8.94374026 
SCALARS velocity float
LOOKUP_TABLE default
0.00000000 0.00000000 0.00000000 0.00000000 0.00000000 0.00000000 0.00000000 0.00000000 0.00000000 0.00000000 0.00000000 0.00000000 0.00000000 0.00000000 0.00000000 0.00000000 0.00000000 0.00000000 0.00000000 0.00000000 0.00000000 0.00000000 0.00000000 0.00000000 0.00000000 0.00000000 0.00000000 0.00000000 0.00000000 0.00000000 0.00000000 0.00000000 0.00000000 0.00000000 0.00000000 0.00000000 0.00000000 0.00000000 0.00000000 0.00000000 0.00000000 0.00000000 0.00000000 0.00000000 0.00000000 0.00000000 0.00000000 0.00000000 0.00000000 0.00000000 0.00000000 
SCALARS regime float
LOOKUP_TABLE default
2.00000000 2.00000000 2.00000000 2.00000000 2.00000000 2.00000000 2.00000000 2.00000000 2.00000000 2.00000000 2.00000000 2.00000000 2.00000000 2.00000000 2.00000000 2.00000000 2.00000000 2.00000000 2.00000000 2.00000000 2.00000000 2.00000000 2.00000000 2.00000000 2.00000000 2.00000000 2.00000000 2.00000000 2.00000000 2.00000000 2.00000000 2.00000000 2.00000000 2.00000000 2.00000000 2.00000000 2.00000000 2.00000000 3.00000000 3.00000000 3.00000000 3.00000000 3.00000000 3.00000000 3.00000000 3.00000000 3.00000000 3.00000000 3.00000000 3.00000000 3.00000000 
SCALARS Temperature float
LOOKUP_TABLE default
343.00000000 343.00000000 343.00000000 343.00000000 343.00000000 343.00000000 343.00000000 343.00000000 343.00000000 343.00000000 343.00000000 343.00000000 343.00000000 343.00000000 343.00000000 343.00000000 343.00000000 343.00000000 343.00000000 343.00000000 343.00000000 343.00000000 343.00000000 343.00000000 343.00000000 343.00000000 343.00000000 343.00000000 343.00000000 343.00000000 343.00000000 343.00000000 343.00000000 343.00000000 343.00000000 343.00000000 343.00000000 343.00000000 343.00000000 343.00000000 343.00000000 343.00000000 343.00000000 343.00000000 343.00000000 343.00000000 343.00000000 343.00000000 343.00000000 343.00000000 343.00000000 