# vtk DataFile Version 2.0
VTK from Matlab
ASCII
DATASET UNSTRUCTURED_GRID
POINTS 49 float
0.00028957 0.00005928 0.00196497 0.00015979 0.00005928 0.00285696 0.00042567 0.00005928 0.00756822 0.00077760 0.00005928 0.00380256 0.00083167 0.00005928 0.00530532 0.00074485 0.00005928 0.00129841 0.00073098 0.00005928 0.00568539 0.00069574 0.00005928 0.00162101 0.00028808 0.00005928 0.00311060 0.00080728 0.00005928 0.00601681 0.00032624 0.00005928 0.00653752 0.00038748 0.00005928 0.00083779 0.00075224 0.00005928 0.00228863 0.00049028 0.00005928 0.00825404 0.00063900 0.00005928 0.00995637 0.00028722 0.00005928 0.00106599 0.00067072 0.00005928 0.00961417 0.00017948 0.00005928 0.00774523 0.00034837 0.00005928 0.00399583 0.00026734 0.00005928 0.00910192 0.00050566 0.00005928 0.00181756 0.00015669 0.00005928 0.00579415 0.00016683 0.00005928 0.00549585 0.00052165 0.00007469 0.00868559 0.00046721 0.00007469 0.00543761 0.00067343 0.00007863 0.00076976 0.00064752 0.00007469 0.00008264 0.00074033 0.00007469 0.00436828 0.00019648 0.00008550 0.00154250 0.00062499 0.00009665 0.00259126 0.00070960 0.00009787 0.00923565 0.00041971 0.00007469 0.00459736 -0.00009725 0.00014216 0.00346912 0.00108202 0.00011991 0.00248779 -0.00006510 0.00009517 0.00528269 0.00106510 0.00009517 0.00688870 0.00106510 0.00009517 0.00084394 0.00106510 0.00009517 0.00473052 -0.00006510 0.00009517 0.00053923 -0.00006510 0.00009517 0.00747778 0.00108202 0.00011991 0.00141680 0.00108202 0.00011991 0.00766065 0.00108202 0.00011991 0.00835355 0.00109389 0.00013726 0.00589415 -0.00010476 0.00015314 0.00805313 0.00093463 0.00000000 0.00615737 0.00093652 0.00000000 0.00567538 0.00018763 0.00000000 0.00336954 0.00023762 0.00000000 0.00799669 
POINT_DATA 49
SCALARS radius float
LOOKUP_TABLE default
0.00011856 0.00011856 0.00011856 0.00011856 0.00011856 0.00011856 0.00011856 0.00011856 0.00011856 0.00011856 0.00011856 0.00011856 0.00011856 0.00011856 0.00011856 0.00011856 0.00011856 0.00011856 0.00011856 0.00011856 0.00011856 0.00011856 0.00011856 0.00014938 0.00014938 0.00015726 0.00014938 0.00014938 0.00017100 0.00019330 0.00019574 0.00014938 0.00028433 0.00023981 0.00019034 0.00019034 0.00019034 0.00019034 0.00019034 0.00019034 0.00023981 0.00023981 0.00023981 0.00027452 0.00030628 0.00002500 0.00002500 0.00002500 0.00002500 
SCALARS Pressure float
LOOKUP_TABLE default
6.19687713 6.19687713 6.19687713 6.19687713 6.19687713 6.19687713 6.19687713 6.19687713 6.19687713 6.19687713 6.19687713 6.19687713 6.19687713 6.19687713 6.19687713 6.19687713 6.19687713 6.19687713 6.19687713 6.19687713 6.19687713 6.19687713 6.19687713 9.44217841 9.37564828 10.35325729 9.37564828 9.37564828 12.24186983 15.86564697 16.44510408 9.37564828 10.32053286 7.49634599 5.08061956 5.08061956 5.08061956 5.08061956 5.08061956 5.08061956 7.49634599 7.49634599 7.49634599 9.63918813 11.97725633 0.00000000 0.00000000 0.00000000 0.00000000 
SCALARS velocity float
LOOKUP_TABLE default
0.00000000 0.00000000 0.00000000 0.00000000 0.00000000 0.00000000 0.00000000 0.00000000 0.00000000 0.00000000 0.00000000 0.00000000 0.00000000 0.00000000 0.00000000 0.00000000 0.00000000 0.00000000 0.00000000 0.00000000 0.00000000 0.00000000 0.00000000 0.00000000 0.00000000 0.00000000 0.00000000 0.00000000 0.00000000 0.00000000 0.00000000 0.00000000 0.00000000 0.00000000 0.00000000 0.00000000 0.00000000 0.00000000 0.00000000 0.00000000 0.00000000 0.00000000 0.00000000 0.00000000 0.00000000 0.00000000 0.00000000 0.00000000 0.00000000 
SCALARS regime float
LOOKUP_TABLE default
2.00000000 2.00000000 2.00000000 2.00000000 2.00000000 2.00000000 2.00000000 2.00000000 2.00000000 2.00000000 2.00000000 2.00000000 2.00000000 2.00000000 2.00000000 2.00000000 2.00000000 2.00000000 2.00000000 2.00000000 2.00000000 2.00000000 2.00000000 2.00000000 2.00000000 2.00000000 2.00000000 2.00000000 2.00000000 2.00000000 2.00000000 2.00000000 3.00000000 3.00000000 3.00000000 3.00000000 3.00000000 3.00000000 3.00000000 3.00000000 3.00000000 3.00000000 3.00000000 3.00000000 3.00000000 0.00000000 0.00000000 0.00000000 0.00000000 
SCALARS Temperature float
LOOKUP_TABLE default
343.00000000 343.00000000 343.00000000 343.00000000 343.00000000 343.00000000 343.00000000 343.00000000 343.00000000 343.00000000 343.00000000 343.00000000 343.00000000 343.00000000 343.00000000 343.00000000 343.00000000 343.00000000 343.00000000 343.00000000 343.00000000 343.00000000 343.00000000 343.00000000 343.00000000 343.00000000 343.00000000 343.00000000 343.00000000 343.00000000 343.00000000 343.00000000 343.00000000 343.00000000 343.00000000 343.00000000 343.00000000 343.00000000 343.00000000 343.00000000 343.00000000 343.00000000 343.00000000 343.00000000 343.00000000 343.00000000 343.00000000 343.00000000 343.00000000 