# vtk DataFile Version 2.0
VTK from Matlab
ASCII
DATASET UNSTRUCTURED_GRID
POINTS 44 float
0.00028957 0.00006525 0.00196497 0.00015979 0.00006525 0.00285696 0.00042567 0.00006525 0.00756822 0.00077760 0.00006525 0.00380256 0.00083167 0.00006525 0.00530532 0.00073098 0.00006525 0.00568539 0.00069574 0.00006525 0.00162101 0.00028808 0.00006525 0.00311060 0.00032624 0.00006525 0.00653752 0.00075224 0.00006525 0.00228863 0.00049028 0.00006525 0.00825404 0.00063900 0.00006525 0.00995637 0.00067072 0.00006525 0.00961417 0.00034837 0.00006525 0.00399583 0.00026734 0.00006525 0.00910192 0.00050566 0.00006525 0.00181756 0.00015669 0.00006525 0.00579415 0.00052165 0.00008221 0.00868559 0.00046721 0.00008221 0.00543761 0.00067343 0.00008550 0.00076976 0.00064752 0.00008221 0.00008264 0.00074033 0.00008221 0.00436828 0.00019648 0.00009410 0.00154250 0.00062499 0.00010569 0.00259126 0.00070960 0.00010671 0.00923565 0.00041971 0.00008221 0.00459736 0.00033735 0.00008221 0.00095189 0.00017948 0.00006525 0.00774523 0.00093652 0.00004110 0.00567538 0.00109028 0.00013197 0.00248779 0.00107165 0.00010475 0.00688870 0.00107165 0.00010475 0.00084394 0.00107165 0.00010475 0.00473052 -0.00007165 0.00010475 0.00053923 -0.00007165 0.00010475 0.00747778 0.00109028 0.00013197 0.00766065 0.00108635 0.00012623 0.00835355 -0.00010476 0.00015314 0.00346115 -0.00009028 0.00013197 0.00538927 0.00110334 0.00015107 0.00137734 -0.00011491 0.00016799 0.00804971 0.00111132 0.00016274 0.00594252 0.00079899 0.00000000 0.00840297 0.00023762 0.00000000 0.00799669 
POINT_DATA 44
SCALARS radius float
LOOKUP_TABLE default
0.00013050 0.00013050 0.00013050 0.00013050 0.00013050 0.00013050 0.00013050 0.00013050 0.00013050 0.00013050 0.00013050 0.00013050 0.00013050 0.00013050 0.00013050 0.00013050 0.00013050 0.00016441 0.00016441 0.00017100 0.00016441 0.00016441 0.00018821 0.00021138 0.00021343 0.00016441 0.00016441 0.00013050 0.00008221 0.00026395 0.00020949 0.00020949 0.00020949 0.00020949 0.00020949 0.00026395 0.00025246 0.00030628 0.00026395 0.00030214 0.00033598 0.00032547 0.00002500 0.00002500 
SCALARS Pressure float
LOOKUP_TABLE default
7.31305794 7.31305794 7.31305794 7.31305794 7.31305794 7.31305794 7.31305794 7.31305794 7.31305794 7.31305794 7.31305794 7.31305794 7.31305794 7.31305794 7.31305794 7.31305794 7.31305794 11.39136826 11.30682514 12.24186983 11.30682514 11.30682514 14.97213677 19.39974004 20.01247074 11.30682514 11.30682514 7.31305794 3.57440590 8.94374026 5.93365167 5.93365167 5.93365167 5.93365167 5.93365167 8.94374026 8.23093110 11.97725633 8.94374026 11.65033784 14.53737479 13.58697788 0.00000000 0.00000000 
SCALARS velocity float
LOOKUP_TABLE default
0.00000000 0.00000000 0.00000000 0.00000000 0.00000000 0.00000000 0.00000000 0.00000000 0.00000000 0.00000000 0.00000000 0.00000000 0.00000000 0.00000000 0.00000000 0.00000000 0.00000000 0.00000000 0.00000000 0.00000000 0.00000000 0.00000000 0.00000000 0.00000000 0.00000000 0.00000000 0.00000000 0.00000000 0.00000000 0.00000000 0.00000000 0.00000000 0.00000000 0.00000000 0.00000000 0.00000000 0.00000000 0.00000000 0.00000000 0.00000000 0.00000000 0.00000000 0.00000000 0.00000000 
SCALARS regime float
LOOKUP_TABLE default
2.00000000 2.00000000 2.00000000 2.00000000 2.00000000 2.00000000 2.00000000 2.00000000 2.00000000 2.00000000 2.00000000 2.00000000 2.00000000 2.00000000 2.00000000 2.00000000 2.00000000 2.00000000 2.00000000 2.00000000 2.00000000 2.00000000 2.00000000 2.00000000 2.00000000 2.00000000 2.00000000 2.00000000 2.00000000 3.00000000 3.00000000 3.00000000 3.00000000 3.00000000 3.00000000 3.00000000 3.00000000 3.00000000 3.00000000 3.00000000 3.00000000 3.00000000 0.00000000 0.00000000 
SCALARS Temperature float
LOOKUP_TABLE default
343.00000000 343.00000000 343.00000000 343.00000000 343.00000000 343.00000000 343.00000000 343.00000000 343.00000000 343.00000000 343.00000000 343.00000000 343.00000000 343.00000000 343.00000000 343.00000000 343.00000000 343.00000000 343.00000000 343.00000000 343.00000000 343.00000000 343.00000000 343.00000000 343.00000000 343.00000000 343.00000000 343.00000000 343.00000000 343.00000000 343.00000000 343.00000000 343.00000000 343.00000000 343.00000000 343.00000000 343.00000000 343.00000000 343.00000000 343.00000000 343.00000000 343.00000000 343.00000000 343.00000000 